material_id,formula_pretty,composition_reduced,energy_above_hull,band_gap,density,volume,nsites,energy_per_atom,x_Fe
mp-773158,Li3Fe2(PO4)3,Li3 Fe2 P3 O12,0.08839635349999801,2.4012000000000002,2.72464566701775,1017.6060574051622,80,-7.3382838785,1.0
mp-766709,Li3Fe4(PO4)6,Li3 Fe4 P6 O24,0.077213770709462,0.0,3.1128483354656,868.4846911014062,74,-7.458258732162163,1.0
mp-753321,LiFePO4,Li1 Fe1 P1 O4,0.07423158071428501,3.814899999999999,3.493268171446145,299.96238454983654,28,-7.489416094285714,0.0
mp-757240,Li3Fe(PO4)2,Li3 Fe1 P2 O8,0.06845654830357001,2.4926999999999992,2.795396833849438,1266.9901243806164,112,-7.127739889017858,0.0
mp-757653,LiFePO4,Li1 Fe1 P1 O4,0.098611577767856,3.6826,3.293975647997102,1272.442983865016,112,-7.465036097232143,0.0
mp-849623,Li2FeP2O7,Li2 Fe1 P2 O7,0.012548983055549,3.9852,3.000860409258465,1078.6882085543332,96,-7.375207069583333,0.0
mp-831266,LiFeP2O7,Li1 Fe1 P2 O7,0.09212446772727201,1.2947,3.072934661293317,1023.3820996281495,88,-7.510509290000001,0.0
mp-762657,LiFe(PO3)3,Li1 Fe1 P3 O9,0.050356284642857005,3.9316,2.885605128014082,344.93055560876513,28,-7.586272354999999,0.0
mp-504385,Li3Fe2(PO4)3,Li3 Fe2 P3 O12,0.042780072374998,2.5408,3.025188793580241,916.5100508516247,80,-7.383900159625,1.0
mp-867567,LiFePO5,Li1 Fe1 P1 O5,0.09762943374999901,0.0,3.320560202303334,347.56772810416396,32,-7.2405054515625,0.0
mp-1176969,Li6Mn3Fe(PO4)6,Li6 Mn3 Fe1 P6 O24,0.055894862687501004,0.884599999999999,2.96157506886693,466.57262867262415,40,-7.464144435,0.0
mp-705431,Li6Fe5(P2O7)4,Li6 Fe5 P8 O28,0.090182500815601,0.0,3.044738823808362,1108.914536211339,94,-7.452311196276596,1.0
mp-25845,Li2FeP2O7,Li2 Fe1 P2 O7,0.036070146805550006,4.2417,2.7943165301935062,579.2101045117596,48,-7.3516859058333335,0.0
mp-758982,Li3Fe(PO4)2,Li3 Fe1 P2 O8,0.071023602797618,2.5097,2.8577907821696122,464.7480062627983,42,-7.12517283452381,0.0
mp-697808,LiFe2P3O13,Li1 Fe2 P3 O13,0.48688342671052404,0.0,2.699224079794614,516.2002031581067,38,-6.950576987105262,1.0
mp-19017,LiFePO4,Li1 Fe1 P1 O4,0.0,3.922399999999999,3.683145802977754,284.49838986332463,28,-7.563647674999999,0.0
mp-757629,Li3Fe(PO4)2,Li3 Fe1 P2 O8,0.089845205714286,1.9917999999999991,3.140174241088369,1127.8801462254307,112,-7.106351231607142,0.0